# vtk DataFile Version 2.0
background mesh
ASCII
DATASET UNSTRUCTURED_GRID
POINTS 63 double
0.447217 0.894426 0.500000
0.447217 0.894426 0.000000
0.707120 -0.707120 0.500000
-0.447221 -0.894450 0.500000
-0.447221 -0.894450 0.000000
0.707113 0.707103 0.000000
-0.707117 -0.707127 0.000000
-0.707110 0.707110 0.500000
0.783961 0.620811 0.500000
0.978652 0.205546 0.500000
0.955494 -0.295054 0.500000
-0.050855 -0.998713 0.500000
0.364615 -0.931172 0.500000
0.921639 0.388054 0.000000
0.997991 -0.063493 0.000000
0.835288 -0.549797 0.000000
0.453162 -0.891451 0.000000
-0.001504 -1.000007 0.000000
0.004763 0.999991 0.000000
-0.453605 0.891213 0.000000
-0.838211 0.545305 0.000000
-0.998095 0.061728 0.000000
-0.921766 -0.387748 0.000000
-0.959723 0.280960 0.500000
-0.978522 -0.206150 0.500000
-0.791961 -0.610573 0.500000
-0.337340 0.941386 0.500000
0.076366 0.997082 0.500000
0.629445 0.777138 0.256922
0.863676 0.504046 0.251208
0.986759 0.162237 0.217642
0.891235 -0.453578 0.248806
0.992095 -0.125582 0.289482
0.598029 -0.801495 0.247212
0.231170 -0.972935 0.247442
-0.254379 -0.967250 0.250000
0.217846 0.975983 0.246125
-0.168848 0.985641 0.250000
-0.527098 0.849801 0.279821
-0.925491 0.378841 0.207269
-0.776890 0.629633 0.250000
-0.994820 -0.101778 0.251312
-0.985040 0.172417 0.250000
-0.864088 -0.503370 0.250000
-0.630588 -0.776233 0.257580
0.386784 0.536625 0.000000
-0.392019 -0.552161 0.000000
-0.101892 0.571761 0.000000
0.135043 -0.565488 0.000000
-0.594837 -0.085581 0.000000
0.594528 0.083071 0.000000
0.168970 0.189442 0.000000
0.308410 -0.226389 0.000000
-0.141785 -0.119495 0.000000
-0.353162 0.284591 0.000000
0.160511 0.579873 0.500000
-0.319354 0.430674 0.500000
-0.397323 -0.482590 0.500000
0.087545 -0.538433 0.500000
0.456026 -0.274886 0.500000
0.518849 0.206062 0.500000
-0.536397 0.020705 0.500000
-0.046372 -0.041349 0.500000
CELLS 134 670 
4 42 41 21 61
4 57 53 49 61
4 51 55 47 56
4 47 54 51 56
4 59 10 31 60
4 61 57 53 62
4 54 61 53 62
4 40 20 19 54
4 23 24 41 61
4 57 35 4 17
4 30 50 32 60
4 0 45 36 1
4 44 43 25 57
4 33 12 2 58
4 54 39 49 61
4 29 9 8 60
4 11 48 34 17
4 59 52 58 62
4 44 25 3 57
4 46 43 44 57
4 19 40 54 56
4 43 57 49 61
4 16 34 33 48
4 26 37 27 55
4 46 53 49 57
4 42 39 23 61
4 45 13 29 50
4 32 14 31 50
4 50 59 60 51
4 47 36 37 55
4 29 28 5 45
4 19 47 37 56
4 51 50 45 60
4 60 55 51 62
4 44 6 43 46
4 6 44 4 46
4 32 9 30 60
4 61 54 56 62
4 0 45 1 28
4 48 53 46 57
4 48 11 58 57
4 55 37 47 56
4 55 26 37 56
4 57 4 46 17
4 38 37 26 56
4 49 43 46 57
4 60 31 50 32
4 39 21 20 49
4 8 55 45 60
4 30 29 13 50
4 19 38 40 56
4 53 48 52 58
4 37 36 27 55
4 24 43 41 61
4 56 39 54 61
4 51 59 52 50
4 32 10 9 60
4 33 31 52 58
4 34 58 48 11
4 58 31 2 33
4 33 48 34 58
4 59 50 60 31
4 50 29 45 60
4 51 45 47 55
4 21 41 22 49
4 48 33 15 52
4 50 15 31 52
4 16 33 15 48
4 11 35 3 57
4 34 12 33 58
4 43 6 22 46
4 12 34 11 58
4 40 38 7 56
4 48 33 52 58
4 56 51 55 62
4 43 22 41 49
4 46 22 43 49
4 19 37 38 56
4 56 23 39 61
4 19 54 47 56
4 25 43 24 57
4 15 31 14 50
4 13 29 5 45
4 58 2 31 59
4 55 0 8 45
4 56 54 51 62
4 57 43 24 61
4 30 9 29 60
4 51 53 52 62
4 51 54 53 62
4 10 31 2 59
4 38 26 7 56
4 48 58 53 57
4 61 21 39 49
4 36 18 1 45
4 57 48 11 17
4 5 28 1 45
4 57 46 48 17
4 15 33 31 52
4 28 8 0 45
4 40 23 39 56
4 59 50 31 52
4 17 34 16 48
4 49 21 41 61
4 27 36 0 55
4 62 60 59 51
4 29 50 30 60
4 20 40 39 54
4 45 36 18 47
4 51 52 59 62
4 61 21 42 39
4 39 54 40 56
4 57 11 35 17
4 32 31 10 60
4 23 40 7 56
4 28 45 29 8
4 58 52 53 62
4 32 30 14 50
4 23 41 42 61
4 14 30 13 50
4 60 29 45 8
4 39 49 20 54
4 37 19 18 47
4 37 18 36 47
4 45 55 51 60
4 54 49 53 61
4 58 53 57 62
4 59 52 31 58
4 36 47 45 55
4 49 41 43 61
4 36 55 45 0
4 4 57 44 3
4 4 57 3 35
4 44 46 57 4
CELL_TYPES 134 
10
10
10
10
10
10
10
10
10
10
10
10
10
10
10
10
10
10
10
10
10
10
10
10
10
10
10
10
10
10
10
10
10
10
10
10
10
10
10
10
10
10
10
10
10
10
10
10
10
10
10
10
10
10
10
10
10
10
10
10
10
10
10
10
10
10
10
10
10
10
10
10
10
10
10
10
10
10
10
10
10
10
10
10
10
10
10
10
10
10
10
10
10
10
10
10
10
10
10
10
10
10
10
10
10
10
10
10
10
10
10
10
10
10
10
10
10
10
10
10
10
10
10
10
10
10
10
10
10
10
10
10
10
10

POINT_DATA 63 
SCALARS nodeID int
LOOKUP_TABLE default
0
1
2
3
4
5
6
7
8
9
10
11
12
13
14
15
16
17
18
19
20
21
22
23
24
25
26
27
28
29
30
31
32
33
34
35
36
37
38
39
40
41
42
43
44
45
46
47
48
49
50
51
52
53
54
55
56
57
58
59
60
61
62

CELL_DATA 134 
SCALARS part int
LOOKUP_TABLE default
0
0
0
0
0
0
0
0
0
0
0
0
0
0
0
0
0
0
0
0
0
0
0
0
0
0
0
0
0
0
0
0
0
0
0
0
0
0
0
0
0
0
0
0
0
0
0
0
0
0
0
0
0
0
0
0
0
0
0
0
0
0
0
0
0
0
0
0
0
0
0
0
0
0
0
0
0
0
0
0
0
0
0
0
0
0
0
0
0
0
0
0
0
0
0
0
0
0
0
0
0
0
0
0
0
0
0
0
0
0
0
0
0
0
0
0
0
0
0
0
0
0
0
0
0
0
0
0
0
0
0
0
0
0

SCALARS cellID int
LOOKUP_TABLE default
0
1
2
3
4
5
6
7
8
9
10
11
12
13
14
15
16
17
18
19
20
21
22
23
24
25
26
27
28
29
30
31
32
33
34
35
36
37
38
39
40
41
42
43
44
45
46
47
48
49
50
51
52
53
54
55
56
57
58
59
60
61
62
63
64
65
66
67
68
69
70
71
72
73
74
75
76
77
78
79
80
81
82
83
84
85
86
87
88
89
90
91
92
93
94
95
96
97
98
99
100
101
102
103
104
105
106
107
108
109
110
111
112
113
114
115
116
117
118
119
120
121
122
123
124
125
126
127
128
129
130
131
132
133
